ITEM: TIMESTEP
310000
ITEM: NUMBER OF ATOMS
41820
ITEM: BOX BOUNDS pp ss ss
0.0000000000000000e+00 8.1000000000000000e+01
-3.5641920857159253e+00 1.0459115973940000e+02
1.0402618938448012e-01 9.1174522844581062e+01
ITEM: ATOMS id type x y z
3 1 2.02499 0.414036 2.33969
5 1 4.05 0.484788 0.446534
7 1 6.075 0.41403 2.33969
403 1 2.025 0.344649 6.29225
405 1 4.05 0.376263 4.28721
407 1 6.075 0.344653 6.29225
408 1 4.05001 2.29606 6.31179
402 1 2.025 2.33523 4.31606
406 1 6.075 2.33524 4.31608
2 1 2.025 2.37788 0.373738
4 1 1.39891e-06 2.38125 2.34095
6 1 6.07501 2.37788 0.373734
8 1 4.04999 2.38126 2.34096
9 1 8.1 0.484796 0.446543
11 1 10.125 0.414035 2.33969
13 1 12.15 0.484794 0.446543
409 1 8.1 0.376258 4.28721
411 1 10.125 0.344651 6.29225
413 1 12.15 0.376264 4.28721
412 1 8.1 2.29606 6.3118
416 1 12.15 2.29606 6.31179
410 1 10.125 2.33523 4.31607
10 1 10.125 2.37788 0.37374
12 1 8.1 2.38125 2.34095
16 1 12.15 2.38125 2.34095
15 1 14.175 0.414031 2.33969
17 1 16.2 0.484793 0.446541
19 1 18.225 0.414033 2.33969
415 1 14.175 0.344653 6.29225
417 1 16.2 0.376262 4.28721
419 1 18.225 0.344654 6.29225
420 1 16.2 2.29606 6.31179
414 1 14.175 2.33523 4.31608
418 1 18.225 2.33523 4.31608
14 1 14.175 2.37788 0.373736
18 1 18.225 2.37788 0.37374
20 1 16.2 2.38126 2.34095
21 1 20.25 0.484798 0.446546
23 1 22.275 0.41403 2.33969
25 1 24.3 0.484785 0.446532
27 1 26.325 0.414032 2.33969
421 1 20.25 0.376259 4.28721
423 1 22.275 0.344652 6.29225
425 1 24.3 0.37626 4.28721
427 1 26.325 0.344651 6.29225
424 1 20.25 2.29606 6.3118
428 1 24.3 2.29606 6.31179
422 1 22.275 2.33524 4.31608
426 1 26.325 2.33524 4.31607
22 1 22.275 2.37788 0.373736
24 1 20.25 2.38125 2.34094
26 1 26.325 2.37788 0.373738
28 1 24.3 2.38127 2.34097
29 1 28.35 0.484789 0.446538
31 1 30.375 0.414032 2.33969
33 1 32.4 0.484788 0.446537
429 1 28.35 0.376259 4.28721
431 1 30.375 0.344655 6.29225
433 1 32.4 0.376265 4.28721
432 1 28.35 2.29606 6.3118
436 1 32.4 2.29606 6.31179
430 1 30.375 2.33523 4.31607
30 1 30.375 2.37788 0.373738
32 1 28.35 2.38126 2.34096
36 1 32.4 2.38126 2.34096
35 1 34.425 0.414028 2.33968
37 1 36.45 0.484797 0.446546
39 1 38.475 0.414028 2.33969
435 1 34.425 0.344651 6.29225
437 1 36.45 0.376257 4.28721
439 1 38.475 0.344652 6.29225
440 1 36.45 2.29606 6.3118
434 1 34.425 2.33524 4.31608
438 1 38.475 2.33523 4.31608
34 1 34.425 2.37788 0.373736
38 1 38.475 2.37788 0.373737
40 1 36.45 2.38125 2.34094
41 1 40.5 0.484786 0.446536
43 1 42.525 0.414029 2.33969
45 1 44.55 0.484788 0.446537
47 1 46.575 0.414029 2.33969
441 1 40.5 0.37626 4.28721
443 1 42.525 0.34465 6.29225
445 1 44.55 0.37626 4.28721
447 1 46.575 0.344651 6.29225
444 1 40.5 2.29606 6.31179
448 1 44.55 2.29607 6.31179
442 1 42.525 2.33524 4.31607
446 1 46.575 2.33524 4.31607
42 1 42.525 2.37789 0.373736
44 1 40.5 2.38126 2.34096
46 1 46.575 2.37788 0.373739
48 1 44.55 2.38126 2.34096
49 1 48.6 0.484786 0.446534
51 1 50.625 0.414032 2.33969
53 1 52.65 0.48479 0.446538
449 1 48.6 0.376258 4.28721
451 1 50.625 0.344652 6.29225
453 1 52.65 0.376261 4.28721
452 1 48.6 2.29607 6.31179
456 1 52.65 2.29606 6.31179
450 1 50.625 2.33524 4.31607
50 1 50.625 2.37788 0.373737
52 1 48.6 2.38127 2.34096
56 1 52.65 2.38126 2.34096
55 1 54.675 0.41403 2.33968
57 1 56.7 0.484793 0.446541
59 1 58.725 0.414028 2.33969
455 1 54.675 0.344654 6.29225
457 1 56.7 0.376258 4.28721
459 1 58.725 0.344649 6.29225
460 1 56.7 2.29606 6.31179
454 1 54.675 2.33524 4.31608
458 1 58.725 2.33524 4.31608
54 1 54.675 2.37788 0.373738
58 1 58.725 2.37789 0.373738
60 1 56.7 2.38126 2.34095
61 1 60.75 0.484778 0.446532
63 1 62.775 0.41403 2.33969
65 1 64.8 0.484791 0.446541
67 1 66.825 0.414032 2.33969
461 1 60.75 0.37626 4.28721
463 1 62.775 0.344653 6.29225
465 1 64.8 0.376259 4.28721
467 1 66.825 0.344649 6.29224
464 1 60.75 2.29606 6.31179
468 1 64.8 2.29606 6.31179
462 1 62.775 2.33524 4.31608
466 1 66.825 2.33523 4.31607
62 1 62.775 2.37788 0.373738
64 1 60.75 2.38127 2.34097
66 1 66.825 2.37789 0.373738
68 1 64.8 2.38126 2.34096
69 1 68.85 0.484793 0.446534
71 1 70.875 0.41403 2.33968
73 1 72.9 0.484803 0.446551
469 1 68.85 0.376262 4.28721
471 1 70.875 0.344657 6.29225
473 1 72.9 0.376262 4.28721
472 1 68.85 2.29607 6.31179
476 1 72.9 2.29606 6.31179
470 1 70.875 2.33524 4.31609
70 1 70.875 2.37787 0.373736
72 1 68.85 2.38126 2.34096
76 1 72.9 2.38123 2.34094
75 1 74.925 0.414035 2.33969
77 1 76.95 0.484782 0.446535
79 1 78.975 0.414027 2.33968
475 1 74.925 0.344649 6.29224
477 1 76.95 0.376261 4.28722
479 1 78.975 0.34465 6.29225
480 1 76.95 2.29606 6.31179
474 1 74.925 2.33523 4.31607
478 1 78.975 2.33524 4.31608
74 1 74.925 2.37788 0.37374
78 1 78.975 2.37788 0.373736
80 1 76.95 2.38128 2.34097
1 1 81 0.484793 0.446543
401 1 81 0.376262 4.28721
404 1 81 2.29606 6.31179
81 1 7.30533e-07 4.32538 0.333904
83 1 2.02501 4.35634 2.29282
85 1 4.05 4.32538 0.333904
87 1 6.075 4.35636 2.29283
481 1 1.08951e-06 4.34241 4.29995
483 1 2.025 4.31119 6.31077
485 1 4.05001 4.3424 4.29994
487 1 6.075 4.31118 6.31076
82 1 2.025 6.33041 0.300133
86 1 6.075 6.3304 0.300139
88 1 4.05001 6.35205 2.25149
482 1 2.025 6.35322 4.26658
484 1 1.49367e-06 6.33648 6.29185
486 1 6.075 6.35321 4.26657
488 1 4.05 6.33648 6.29185
161 1 8.45697e-08 8.33257 0.272181
163 1 2.02499 8.35002 2.22246
165 1 4.05 8.33257 0.27218
167 1 6.075 8.35002 2.22246
563 1 2.025 8.34813 6.26869
565 1 4.05 8.35547 4.23741
567 1 6.075 8.34814 6.2687
89 1 8.1 4.32538 0.333904
91 1 10.125 4.35635 2.29282
93 1 12.15 4.32538 0.333904
489 1 8.1 4.34241 4.29995
491 1 10.125 4.31119 6.31077
493 1 12.15 4.34241 4.29995
90 1 10.125 6.3304 0.300135
92 1 8.1 6.35204 2.25149
96 1 12.15 6.35204 2.25149
490 1 10.125 6.35322 4.26658
492 1 8.1 6.33648 6.29184
496 1 12.15 6.33648 6.29184
169 1 8.1 8.33257 0.272177
171 1 10.125 8.35002 2.22246
173 1 12.15 8.33256 0.27218
569 1 8.1 8.35547 4.23741
571 1 10.125 8.34814 6.2687
573 1 12.15 8.35547 4.23741
95 1 14.175 4.35636 2.29282
97 1 16.2 4.32538 0.333905
99 1 18.225 4.35635 2.29282
495 1 14.175 4.31118 6.31076
497 1 16.2 4.34241 4.29995
499 1 18.225 4.31118 6.31076
94 1 14.175 6.3304 0.300136
98 1 18.225 6.3304 0.300138
100 1 16.2 6.35204 2.25149
494 1 14.175 6.35321 4.26657
498 1 18.225 6.35322 4.26658
500 1 16.2 6.33648 6.29185
175 1 14.175 8.35002 2.22246
177 1 16.2 8.33257 0.272178
179 1 18.225 8.35002 2.22246
575 1 14.175 8.34814 6.2687
577 1 16.2 8.35547 4.23741
579 1 18.225 8.34814 6.2687
101 1 20.25 4.32538 0.333903
103 1 22.275 4.35635 2.29282
105 1 24.3 4.32538 0.333904
107 1 26.325 4.35634 2.29282
501 1 20.25 4.34241 4.29996
503 1 22.275 4.31118 6.31076
505 1 24.3 4.3424 4.29994
507 1 26.325 4.31118 6.31077
102 1 22.275 6.3304 0.300135
104 1 20.25 6.35205 2.25149
106 1 26.325 6.3304 0.300134
108 1 24.3 6.35205 2.25149
502 1 22.275 6.35322 4.26657
504 1 20.25 6.33648 6.29184
506 1 26.325 6.35322 4.26657
508 1 24.3 6.33648 6.29185
181 1 20.25 8.33256 0.27218
183 1 22.275 8.35002 2.22246
185 1 24.3 8.33256 0.272178
187 1 26.325 8.35002 2.22246
581 1 20.25 8.35547 4.2374
583 1 22.275 8.34814 6.2687
585 1 24.3 8.35547 4.23741
587 1 26.325 8.34814 6.2687
109 1 28.35 4.32538 0.333906
111 1 30.375 4.35635 2.29282
113 1 32.4 4.32538 0.333904
509 1 28.35 4.34241 4.29995
511 1 30.375 4.31118 6.31077
513 1 32.4 4.3424 4.29994
110 1 30.375 6.3304 0.300136
112 1 28.35 6.35205 2.25149
116 1 32.4 6.35204 2.25149
510 1 30.375 6.35322 4.26657
512 1 28.35 6.33648 6.29185
516 1 32.4 6.33649 6.29185
189 1 28.35 8.33256 0.272179
191 1 30.375 8.35002 2.22246
193 1 32.4 8.33257 0.272177
589 1 28.35 8.35547 4.23741
591 1 30.375 8.34814 6.2687
593 1 32.4 8.35547 4.23741
115 1 34.425 4.35635 2.29282
117 1 36.45 4.32538 0.333903
119 1 38.475 4.35635 2.29282
515 1 34.425 4.31118 6.31077
517 1 36.45 4.34242 4.29996
519 1 38.475 4.31118 6.31076
114 1 34.425 6.3304 0.300137
118 1 38.475 6.3304 0.300133
120 1 36.45 6.35204 2.25149
514 1 34.425 6.35322 4.26657
518 1 38.475 6.35322 4.26658
520 1 36.45 6.33648 6.29184
195 1 34.425 8.35002 2.22246
197 1 36.45 8.33257 0.272177
199 1 38.475 8.35002 2.22246
595 1 34.425 8.34814 6.2687
597 1 36.45 8.35547 4.23741
599 1 38.475 8.34814 6.2687
121 1 40.5 4.32538 0.333905
123 1 42.525 4.35635 2.29282
125 1 44.55 4.32538 0.333904
127 1 46.575 4.35634 2.29282
521 1 40.5 4.3424 4.29995
523 1 42.525 4.31118 6.31077
525 1 44.55 4.3424 4.29994
527 1 46.575 4.31118 6.31077
122 1 42.525 6.3304 0.300138
124 1 40.5 6.35204 2.25149
126 1 46.575 6.3304 0.300136
128 1 44.55 6.35205 2.25149
522 1 42.525 6.35322 4.26657
524 1 40.5 6.33649 6.29185
526 1 46.575 6.35322 4.26658
528 1 44.55 6.33649 6.29184
201 1 40.5 8.33256 0.272179
203 1 42.525 8.35001 2.22246
205 1 44.55 8.33256 0.272183
207 1 46.575 8.35002 2.22246
601 1 40.5 8.35547 4.23741
603 1 42.525 8.34814 6.2687
605 1 44.55 8.35547 4.23741
607 1 46.575 8.34814 6.2687
129 1 48.6 4.32538 0.333907
131 1 50.625 4.35634 2.29282
133 1 52.65 4.32538 0.333903
529 1 48.6 4.3424 4.29994
531 1 50.625 4.31118 6.31076
533 1 52.65 4.3424 4.29995
130 1 50.625 6.3304 0.300135
132 1 48.6 6.35204 2.25149
136 1 52.65 6.35205 2.25149
530 1 50.625 6.35322 4.26658
532 1 48.6 6.33648 6.29185
536 1 52.65 6.33648 6.29185
209 1 48.6 8.33256 0.272176
211 1 50.625 8.35002 2.22246
213 1 52.65 8.33256 0.272184
609 1 48.6 8.35547 4.23741
611 1 50.625 8.34814 6.2687
613 1 52.65 8.35547 4.23741
135 1 54.675 4.35635 2.29282
137 1 56.7 4.32537 0.333906
139 1 58.725 4.35634 2.29282
535 1 54.675 4.31119 6.31076
537 1 56.7 4.34241 4.29995
539 1 58.725 4.31118 6.31077
134 1 54.675 6.3304 0.300137
138 1 58.725 6.3304 0.300136
140 1 56.7 6.35204 2.2515
534 1 54.675 6.35322 4.26658
538 1 58.725 6.35322 4.26658
540 1 56.7 6.33648 6.29184
215 1 54.675 8.35001 2.22246
217 1 56.7 8.33256 0.272177
219 1 58.725 8.35002 2.22246
615 1 54.675 8.34814 6.2687
617 1 56.7 8.35547 4.23741
619 1 58.725 8.34814 6.26869
141 1 60.75 4.32538 0.333903
143 1 62.775 4.35635 2.29282
145 1 64.8 4.32538 0.333906
147 1 66.825 4.35634 2.29282
541 1 60.75 4.3424 4.29994
543 1 62.775 4.31118 6.31076
545 1 64.8 4.34241 4.29995
547 1 66.825 4.31119 6.31077
142 1 62.775 6.33041 0.300138
144 1 60.75 6.35205 2.25149
146 1 66.825 6.3304 0.300131
148 1 64.8 6.35205 2.25149
542 1 62.775 6.35322 4.26657
544 1 60.75 6.33649 6.29186
546 1 66.825 6.35322 4.26659
548 1 64.8 6.33648 6.29184
221 1 60.75 8.33257 0.272179
223 1 62.775 8.35002 2.22246
225 1 64.8 8.33256 0.272178
227 1 66.825 8.35003 2.22246
621 1 60.75 8.35547 4.23741
623 1 62.775 8.34814 6.2687
625 1 64.8 8.35547 4.23741
627 1 66.825 8.34814 6.26869
149 1 68.85 4.32538 0.333904
151 1 70.875 4.35635 2.29283
153 1 72.9 4.32538 0.3339
549 1 68.85 4.3424 4.29995
551 1 70.875 4.31117 6.31075
553 1 72.9 4.34242 4.29997
150 1 70.875 6.3304 0.300137
152 1 68.85 6.35204 2.25149
156 1 72.9 6.35205 2.25149
550 1 70.875 6.35321 4.26657
552 1 68.85 6.33648 6.29185
556 1 72.9 6.33648 6.29184
229 1 68.85 8.33256 0.272178
231 1 70.875 8.35002 2.22246
233 1 72.9 8.33256 0.272181
629 1 68.85 8.35547 4.23741
631 1 70.875 8.34815 6.2687
633 1 72.9 8.35547 4.23741
155 1 74.925 4.35635 2.29281
157 1 76.95 4.32538 0.333909
159 1 78.975 4.35635 2.29282
555 1 74.925 4.31119 6.31077
557 1 76.95 4.3424 4.29994
559 1 78.975 4.31118 6.31077
154 1 74.925 6.3304 0.300137
158 1 78.975 6.3304 0.300138
160 1 76.95 6.35204 2.25149
554 1 74.925 6.35322 4.26658
558 1 78.975 6.35322 4.26657
560 1 76.95 6.33649 6.29185
235 1 74.925 8.35002 2.22245
237 1 76.95 8.33256 0.272179
239 1 78.975 8.35002 2.22246
635 1 74.925 8.34813 6.26869
637 1 76.95 8.35547 4.23741
639 1 78.975 8.34815 6.2687
84 1 81 6.35205 2.25149
561 1 81 8.35547 4.2374
162 1 2.025 10.3354 0.250613
164 1 6.69847e-06 10.351 2.19892
166 1 6.075 10.3354 0.250615
168 1 4.05 10.351 2.19891
562 1 2.025 10.3584 4.2131
566 1 6.075 10.3584 4.2131
568 1 4.05 10.3563 6.24659
243 1 2.025 12.3557 2.17917
245 1 4.05 12.3419 0.232596
247 1 6.075 12.3557 2.17918
643 1 2.025 12.3646 6.22673
645 1 4.05 12.3637 4.1924
647 1 6.075 12.3646 6.22673
242 1 2.025 14.3506 0.216976
244 1 9.18952e-06 14.3628 2.16242
246 1 6.075 14.3506 0.216977
248 1 4.05 14.3628 2.16242
642 1 2.02501 14.3707 4.17474
644 1 2.69886e-07 14.3732 6.20914
646 1 6.075 14.3707 4.17474
648 1 4.05 14.3732 6.20914
325 1 4.05 16.3607 0.203361
321 1 5.75906e-06 16.3607 0.203356
725 1 4.05 16.3792 4.15942
327 1 6.075 16.3716 2.14791
323 1 2.025 16.3716 2.14792
727 1 6.075 16.3827 6.19362
723 1 2.02501 16.3827 6.19363
170 1 10.125 10.3354 0.250615
172 1 8.1 10.351 2.19892
176 1 12.15 10.351 2.19892
570 1 10.125 10.3584 4.2131
572 1 8.1 10.3563 6.24659
576 1 12.15 10.3563 6.24659
249 1 8.1 12.3419 0.232594
251 1 10.125 12.3557 2.17917
253 1 12.15 12.3419 0.232592
649 1 8.1 12.3637 4.1924
651 1 10.125 12.3646 6.22673
653 1 12.15 12.3637 4.1924
250 1 10.125 14.3506 0.216976
252 1 8.1 14.3628 2.16242
256 1 12.15 14.3628 2.16242
650 1 10.125 14.3707 4.17474
652 1 8.1 14.3732 6.20914
656 1 12.15 14.3732 6.20915
333 1 12.15 16.3607 0.203362
329 1 8.1 16.3607 0.20336
729 1 8.1 16.3792 4.15942
733 1 12.15 16.3792 4.15942
331 1 10.125 16.3716 2.14792
731 1 10.125 16.3827 6.19362
174 1 14.175 10.3354 0.250615
178 1 18.225 10.3354 0.250614
180 1 16.2 10.351 2.19892
574 1 14.175 10.3584 4.2131
578 1 18.225 10.3584 4.2131
580 1 16.2 10.3563 6.24659
255 1 14.175 12.3557 2.17918
257 1 16.2 12.3419 0.232593
259 1 18.225 12.3557 2.17918
655 1 14.175 12.3646 6.22673
657 1 16.2 12.3637 4.1924
659 1 18.225 12.3646 6.22673
254 1 14.175 14.3506 0.216978
258 1 18.225 14.3506 0.216976
260 1 16.2 14.3628 2.16242
654 1 14.175 14.3707 4.17474
658 1 18.225 14.3707 4.17474
660 1 16.2 14.3732 6.20915
337 1 16.2 16.3607 0.203362
737 1 16.2 16.3792 4.15942
339 1 18.225 16.3716 2.14792
335 1 14.175 16.3716 2.14792
735 1 14.175 16.3827 6.19362
739 1 18.225 16.3827 6.19362
182 1 22.275 10.3354 0.250613
184 1 20.25 10.351 2.19892
186 1 26.325 10.3354 0.250613
188 1 24.3 10.351 2.19892
582 1 22.275 10.3584 4.2131
584 1 20.25 10.3563 6.24659
586 1 26.325 10.3584 4.2131
588 1 24.3 10.3563 6.24659
261 1 20.25 12.3419 0.232592
263 1 22.275 12.3557 2.17918
265 1 24.3 12.3419 0.232593
267 1 26.325 12.3557 2.17918
661 1 20.25 12.3637 4.19241
663 1 22.275 12.3646 6.22673
665 1 24.3 12.3637 4.1924
667 1 26.325 12.3646 6.22673
262 1 22.275 14.3506 0.216977
264 1 20.25 14.3628 2.16242
266 1 26.325 14.3506 0.216975
268 1 24.3 14.3628 2.16242
662 1 22.275 14.3707 4.17474
664 1 20.25 14.3732 6.20914
666 1 26.325 14.3707 4.17474
668 1 24.3 14.3732 6.20914
341 1 20.25 16.3607 0.20336
345 1 24.3 16.3607 0.203358
741 1 20.25 16.3792 4.15942
745 1 24.3 16.3792 4.15942
343 1 22.275 16.3716 2.14792
347 1 26.325 16.3716 2.14792
747 1 26.325 16.3827 6.19362
743 1 22.275 16.3827 6.19362
190 1 30.375 10.3354 0.250614
192 1 28.35 10.351 2.19892
196 1 32.4 10.351 2.19892
590 1 30.375 10.3584 4.2131
592 1 28.35 10.3563 6.24659
596 1 32.4 10.3563 6.24659
269 1 28.35 12.3419 0.232595
271 1 30.375 12.3557 2.17918
273 1 32.4 12.3419 0.232591
669 1 28.35 12.3637 4.1924
671 1 30.375 12.3646 6.22673
673 1 32.4 12.3636 4.1924
270 1 30.375 14.3506 0.216975
272 1 28.35 14.3628 2.16242
276 1 32.4 14.3628 2.16242
670 1 30.375 14.3707 4.17473
672 1 28.35 14.3732 6.20914
676 1 32.4 14.3732 6.20914
353 1 32.4 16.3607 0.203361
349 1 28.35 16.3607 0.20336
749 1 28.35 16.3792 4.15942
753 1 32.4 16.3792 4.15942
351 1 30.375 16.3716 2.14792
751 1 30.375 16.3827 6.19362
194 1 34.425 10.3354 0.250615
198 1 38.475 10.3354 0.250615
200 1 36.45 10.351 2.19892
594 1 34.425 10.3584 4.2131
598 1 38.475 10.3584 4.2131
600 1 36.45 10.3563 6.24659
275 1 34.425 12.3557 2.17918
277 1 36.45 12.3419 0.232594
279 1 38.475 12.3557 2.17917
675 1 34.425 12.3646 6.22673
677 1 36.45 12.3637 4.1924
679 1 38.475 12.3646 6.22673
274 1 34.425 14.3506 0.216977
278 1 38.475 14.3506 0.216975
280 1 36.45 14.3628 2.16242
674 1 34.425 14.3707 4.17474
678 1 38.475 14.3707 4.17474
680 1 36.45 14.3732 6.20914
357 1 36.45 16.3607 0.203361
757 1 36.45 16.3792 4.15942
355 1 34.425 16.3716 2.14792
359 1 38.475 16.3716 2.14792
759 1 38.475 16.3827 6.19362
755 1 34.425 16.3827 6.19362
202 1 42.525 10.3354 0.250613
204 1 40.5 10.351 2.19892
206 1 46.575 10.3354 0.250617
208 1 44.55 10.351 2.19891
602 1 42.525 10.3584 4.2131
604 1 40.5 10.3563 6.24659
606 1 46.575 10.3584 4.2131
608 1 44.55 10.3563 6.24659
281 1 40.5 12.3419 0.232592
283 1 42.525 12.3557 2.17918
285 1 44.55 12.3419 0.232593
287 1 46.575 12.3557 2.17917
681 1 40.5 12.3637 4.1924
683 1 42.525 12.3646 6.22673
685 1 44.55 12.3637 4.19241
687 1 46.575 12.3646 6.22673
282 1 42.525 14.3506 0.216977
284 1 40.5 14.3628 2.16242
286 1 46.575 14.3506 0.216975
288 1 44.55 14.3628 2.16242
682 1 42.525 14.3707 4.17473
684 1 40.5 14.3732 6.20914
686 1 46.575 14.3707 4.17473
688 1 44.55 14.3732 6.20915
365 1 44.55 16.3607 0.20336
361 1 40.5 16.3607 0.203356
765 1 44.55 16.3792 4.15942
761 1 40.5 16.3792 4.15942
367 1 46.575 16.3716 2.14792
363 1 42.525 16.3716 2.14792
767 1 46.575 16.3827 6.19362
763 1 42.525 16.3827 6.19362
210 1 50.625 10.3354 0.250614
212 1 48.6 10.351 2.19892
216 1 52.65 10.351 2.19891
610 1 50.625 10.3584 4.2131
612 1 48.6 10.3563 6.24659
616 1 52.65 10.3563 6.24659
289 1 48.6 12.3419 0.232594
291 1 50.625 12.3557 2.17917
293 1 52.65 12.3419 0.232593
689 1 48.6 12.3636 4.1924
691 1 50.625 12.3646 6.22673
693 1 52.65 12.3637 4.1924
290 1 50.625 14.3506 0.216977
292 1 48.6 14.3628 2.16242
296 1 52.65 14.3628 2.16242
690 1 50.625 14.3707 4.17473
692 1 48.6 14.3732 6.20914
696 1 52.65 14.3732 6.20914
369 1 48.6 16.3607 0.203362
373 1 52.65 16.3607 0.20336
773 1 52.65 16.3792 4.15942
371 1 50.625 16.3716 2.14792
769 1 48.6 16.3792 4.15943
771 1 50.625 16.3827 6.19362
214 1 54.675 10.3354 0.250612
218 1 58.725 10.3354 0.250619
220 1 56.7 10.351 2.19892
614 1 54.675 10.3584 4.2131
618 1 58.725 10.3584 4.2131
620 1 56.7 10.3563 6.24659
295 1 54.675 12.3557 2.17918
297 1 56.7 12.3419 0.232592
299 1 58.725 12.3557 2.17918
695 1 54.675 12.3646 6.22673
697 1 56.7 12.3636 4.1924
699 1 58.725 12.3646 6.22673
294 1 54.675 14.3506 0.216975
298 1 58.725 14.3506 0.216974
300 1 56.7 14.3628 2.16242
694 1 54.675 14.3707 4.17474
698 1 58.725 14.3707 4.17474
700 1 56.7 14.3732 6.20914
377 1 56.7 16.3607 0.203359
375 1 54.675 16.3716 2.14792
379 1 58.725 16.3716 2.14792
777 1 56.7 16.3792 4.15942
779 1 58.725 16.3827 6.19362
775 1 54.675 16.3827 6.19362
222 1 62.775 10.3354 0.250615
224 1 60.75 10.351 2.19892
226 1 66.825 10.3354 0.250615
228 1 64.8 10.351 2.19892
622 1 62.775 10.3584 4.2131
624 1 60.75 10.3563 6.24658
626 1 66.825 10.3584 4.2131
628 1 64.8 10.3563 6.24659
301 1 60.75 12.3419 0.232592
303 1 62.775 12.3557 2.17918
305 1 64.8 12.3419 0.232594
307 1 66.825 12.3557 2.17918
701 1 60.75 12.3636 4.19241
703 1 62.775 12.3646 6.22673
705 1 64.8 12.3637 4.1924
707 1 66.825 12.3646 6.22673
302 1 62.775 14.3506 0.216977
304 1 60.75 14.3628 2.16242
306 1 66.825 14.3506 0.216974
308 1 64.8 14.3628 2.16242
702 1 62.775 14.3707 4.17473
704 1 60.75 14.3732 6.20914
706 1 66.825 14.3707 4.17474
708 1 64.8 14.3732 6.20914
381 1 60.75 16.3607 0.203359
385 1 64.8 16.3607 0.203361
383 1 62.775 16.3716 2.14792
387 1 66.825 16.3716 2.14791
781 1 60.75 16.3792 4.15942
785 1 64.8 16.3792 4.15943
783 1 62.775 16.3827 6.19363
787 1 66.825 16.3827 6.19362
230 1 70.875 10.3354 0.250614
232 1 68.85 10.351 2.19891
236 1 72.9 10.351 2.19892
630 1 70.875 10.3584 4.2131
632 1 68.85 10.3563 6.24659
636 1 72.9 10.3563 6.24659
309 1 68.85 12.3419 0.232596
311 1 70.875 12.3557 2.17917
313 1 72.9 12.3419 0.232588
709 1 68.85 12.3637 4.1924
711 1 70.875 12.3646 6.22673
713 1 72.9 12.3636 4.1924
310 1 70.875 14.3506 0.216976
312 1 68.85 14.3628 2.16242
316 1 72.9 14.3628 2.16242
710 1 70.875 14.3707 4.17474
712 1 68.85 14.3732 6.20915
716 1 72.9 14.3732 6.20915
389 1 68.85 16.3607 0.203358
393 1 72.9 16.3607 0.203366
391 1 70.875 16.3716 2.14792
793 1 72.9 16.3792 4.15942
789 1 68.85 16.3792 4.15942
791 1 70.875 16.3827 6.19362
234 1 74.925 10.3354 0.250616
238 1 78.975 10.3354 0.250614
240 1 76.95 10.351 2.19891
634 1 74.925 10.3584 4.21309
638 1 78.975 10.3584 4.2131
640 1 76.95 10.3563 6.24659
315 1 74.925 12.3557 2.17918
317 1 76.95 12.3419 0.232591
319 1 78.975 12.3557 2.17918
715 1 74.925 12.3646 6.22673
717 1 76.95 12.3637 4.1924
719 1 78.975 12.3646 6.22673
314 1 74.925 14.3506 0.216976
318 1 78.975 14.3506 0.216975
320 1 76.95 14.3628 2.16242
714 1 74.925 14.3707 4.17473
718 1 78.975 14.3707 4.17473
720 1 76.95 14.3732 6.20914
397 1 76.95 16.3607 0.203358
399 1 78.975 16.3716 2.14792
395 1 74.925 16.3716 2.14791
797 1 76.95 16.3792 4.15942
795 1 74.925 16.3827 6.19363
799 1 78.975 16.3827 6.19362
564 1 81 10.3563 6.24659
241 1 81 12.3419 0.232591
641 1 81 12.3637 4.1924
721 1 81 16.3792 4.15942
801 1 5.10896e-07 0.318876 8.29441
803 1 2.04103 0.219583 10.269
805 1 4.05 0.318876 8.29441
807 1 6.23901 0.127852 10.1608
1205 1 3.93391 0.208098 12.2894
1206 1 6.09285 2.19176 12.2935
1202 1 2.16214 2.16822 12.44
808 1 3.98324 2.15264 10.4245
802 1 2.025 2.26919 8.30973
806 1 6.07501 2.26919 8.30972
1201 1 0.0346592 0.132799 12.5604
809 1 8.1 0.318878 8.29441
811 1 9.94114 0.279404 10.3962
813 1 12.15 0.318879 8.29441
1209 1 7.97996 0.369209 12.273
1213 1 11.9514 0.201724 12.3972
1210 1 10.1163 2.25015 12.1953
816 1 12.084 2.22281 10.275
812 1 8.15431 2.22547 10.3784
810 1 10.125 2.26919 8.30973
815 1 14.143 0.135595 10.1593
817 1 16.2 0.318877 8.29441
819 1 18.2103 0.180745 10.2298
1217 1 16.0934 0.247528 12.3361
1214 1 14.0478 2.10442 12.3467
1218 1 18.0938 2.06069 12.2119
820 1 16.1588 2.12999 10.3484
814 1 14.175 2.26919 8.30973
818 1 18.225 2.26919 8.30972
1221 1 20.3222 0.124427 12.3322
824 1 20.2154 2.16547 10.3334
821 1 20.25 0.318878 8.29441
823 1 22.4561 0.28026 10.3635
825 1 24.3 0.318875 8.2944
827 1 26.3964 0.247166 10.4289
1225 1 24.281 0.308723 12.2456
1226 1 26.2921 2.13492 12.3417
1222 1 22.3837 2.1309 12.2874
828 1 24.3125 2.18445 10.2746
822 1 22.275 2.26919 8.30972
826 1 26.325 2.26919 8.30972
829 1 28.35 0.318877 8.29441
831 1 30.4781 0.364222 10.2155
833 1 32.4 0.318875 8.29441
1229 1 28.4265 0.260052 12.2888
1233 1 32.3154 0.0910669 12.3404
836 1 32.4499 2.29733 10.3954
1230 1 30.3095 2.08911 12.3873
832 1 28.4996 2.19548 10.3207
830 1 30.375 2.2692 8.30972
835 1 34.3335 0.232944 10.2328
837 1 36.45 0.318877 8.29441
839 1 38.6046 0.14872 10.152
1237 1 36.5198 0.461327 12.1711
1234 1 34.4172 2.20056 12.4042
1238 1 38.3762 2.17884 12.236
840 1 36.4288 2.25129 10.3651
834 1 34.425 2.2692 8.30973
838 1 38.475 2.26919 8.30972
841 1 40.5 0.318875 8.29441
843 1 42.5951 0.0995486 10.0439
845 1 44.55 0.318875 8.29441
847 1 46.6649 0.222282 10.0737
1241 1 40.4485 0.274483 12.4566
1245 1 44.5267 0.181915 12.4006
1246 1 46.5778 2.2035 12.2794
1242 1 42.4771 1.92614 12.1788
848 1 44.4396 2.04369 10.3648
844 1 40.3766 2.18809 10.1928
842 1 42.525 2.2692 8.30973
846 1 46.575 2.2692 8.30972
849 1 48.6 0.318874 8.29441
851 1 50.7274 0.152476 10.2643
853 1 52.65 0.318877 8.29441
1249 1 48.7713 0.0682485 12.1731
1253 1 52.5622 0.171518 12.4776
852 1 48.5516 2.06374 10.3197
1250 1 50.7089 2.14342 12.3939
856 1 52.696 2.31279 10.3217
850 1 50.625 2.26919 8.30973
855 1 54.6247 0.284344 10.3368
857 1 56.7 0.318877 8.29441
859 1 58.8096 0.396291 10.3465
1257 1 56.7304 0.32558 12.3287
1254 1 54.6719 2.25177 12.2919
1258 1 58.7141 2.26848 12.3956
860 1 56.6033 2.23498 10.3272
854 1 54.675 2.26919 8.30972
858 1 58.725 2.2692 8.30972
861 1 60.75 0.318875 8.29441
863 1 62.643 0.246348 10.4455
865 1 64.8 0.318877 8.29441
1261 1 60.5561 0.175863 12.4009
1265 1 64.8427 0.0821706 12.2251
1262 1 62.6599 1.95996 12.4358
868 1 64.623 2.13365 10.362
864 1 60.7627 2.12627 10.3302
862 1 62.775 2.26919 8.30972
866 1 66.825 2.2692 8.30973
1266 1 66.8738 2.17473 12.3486
867 1 66.7684 0.232607 10.1876
869 1 68.85 0.318878 8.29441
871 1 70.8811 0.0942892 10.2547
873 1 72.9 0.318876 8.29441
1269 1 68.8718 0.136276 12.1395
1273 1 72.7402 -0.072106 12.3524
876 1 72.9796 2.13751 10.2034
1270 1 70.9359 2.0361 12.1088
872 1 68.8416 2.32651 10.1243
870 1 70.875 2.26919 8.30972
875 1 74.8993 -0.0142919 10.3654
877 1 76.95 0.318875 8.29441
879 1 78.914 0.20827 10.2789
1277 1 76.9129 0.244463 12.299
1278 1 78.9562 2.0425 12.3081
1274 1 74.876 1.96708 12.4282
880 1 76.8073 2.0835 10.245
874 1 74.925 2.2692 8.30973
878 1 78.975 2.2692 8.30973
804 1 80.9461 2.0536 10.3497
883 1 1.99681 4.10799 10.2728
885 1 4.05 4.2842 8.31299
887 1 6.06348 4.18638 10.2359
1285 1 4.27923 4.10726 12.3482
888 1 4.03942 6.25824 10.2694
1282 1 2.06699 6.19508 12.3185
882 1 2.025 6.31548 8.30348
886 1 6.075 6.31549 8.30349
1286 1 6.19335 6.18446 12.3603
963 1 2.06684 8.25009 10.2143
967 1 5.99211 8.46816 10.2637
1365 1 4.12486 8.1938 12.3739
965 1 4.05 8.33447 8.28767
1361 1 0.0210437 8.22313 12.3239
889 1 8.1 4.28419 8.31299
891 1 10.1159 4.20162 10.2479
893 1 12.15 4.28419 8.31299
1289 1 8.07003 4.13637 12.2554
1293 1 12.1893 4.15382 12.3749
892 1 8.09155 6.25702 10.2573
1290 1 10.0151 6.12695 12.3587
890 1 10.125 6.31549 8.30348
896 1 12.0696 6.1827 10.3797
1369 1 7.97984 8.42792 12.3097
1373 1 12.2606 8.13926 12.4958
969 1 8.1 8.33447 8.28767
971 1 10.2278 8.30413 10.3151
973 1 12.15 8.33447 8.28767
895 1 14.1688 4.14712 10.3542
897 1 16.2 4.2842 8.31299
899 1 18.2898 4.19033 10.3308
1297 1 16.1073 4.26797 12.4117
900 1 16.2998 6.20336 10.3354
894 1 14.175 6.31549 8.30349
898 1 18.225 6.31549 8.30349
1294 1 14.1042 6.12573 12.3703
1298 1 18.1927 6.20485 12.3727
975 1 14.1349 8.32941 10.4451
979 1 18.1219 8.292 10.4488
977 1 16.2 8.33447 8.28767
1377 1 16.0479 8.20102 12.3281
904 1 20.2868 6.3925 10.3677
1381 1 20.2647 8.22341 12.3991
1301 1 20.2813 4.22431 12.2525
901 1 20.25 4.2842 8.31299
903 1 22.3375 4.20937 10.3661
905 1 24.3 4.2842 8.31299
907 1 26.2053 4.22837 10.5391
1305 1 24.4599 4.09685 12.4693
1306 1 26.2802 6.19974 12.3435
908 1 24.2934 6.298 10.263
1302 1 22.3211 6.22332 12.3407
902 1 22.275 6.31549 8.30348
906 1 26.325 6.31549 8.30348
983 1 22.2544 8.40282 10.3334
987 1 26.4048 8.4703 10.3166
1385 1 24.2748 8.28562 12.2831
981 1 20.25 8.33447 8.28767
985 1 24.3 8.33447 8.28767
909 1 28.35 4.28419 8.31298
911 1 30.4435 4.20465 10.2996
913 1 32.4 4.2842 8.31299
1309 1 28.4369 4.149 12.3758
1313 1 32.3843 4.15043 12.4824
1310 1 30.4819 6.20085 12.49
916 1 32.3328 6.31019 10.3926
910 1 30.375 6.31549 8.30348
912 1 28.206 6.2379 10.4483
991 1 30.297 8.34806 10.3286
1389 1 28.2994 8.3126 12.2651
1393 1 32.3821 8.24707 12.3951
989 1 28.35 8.33447 8.28767
993 1 32.4 8.33447 8.28767
915 1 34.3323 4.42948 10.3109
917 1 36.45 4.28419 8.31299
919 1 38.4835 4.37219 10.1975
1317 1 36.4352 4.1083 12.3431
1318 1 38.45 6.34394 12.3471
920 1 36.4749 6.30679 10.2273
914 1 34.425 6.31548 8.30348
918 1 38.475 6.31549 8.30349
1314 1 34.5153 6.25783 12.46
999 1 38.4483 8.47292 10.3507
995 1 34.3962 8.24601 10.3766
997 1 36.45 8.33447 8.28768
1397 1 36.4937 8.26613 12.4082
1401 1 40.5486 8.22183 12.465
921 1 40.5 4.28419 8.31299
923 1 42.5133 4.27523 10.3436
925 1 44.55 4.28419 8.31299
927 1 46.638 4.15547 10.3278
1321 1 40.4649 4.0498 12.2858
1325 1 44.6416 4.17874 12.3229
928 1 44.5925 6.22603 10.3891
1326 1 46.7444 6.0441 12.3976
1322 1 42.4509 6.13624 12.3858
922 1 42.525 6.31549 8.30348
924 1 40.3683 6.23329 10.2846
926 1 46.575 6.31549 8.30349
1003 1 42.4624 8.12354 10.4832
1405 1 44.6854 8.06942 12.413
1001 1 40.5 8.33447 8.28767
1005 1 44.55 8.33447 8.28767
1007 1 46.6241 8.38104 10.1299
929 1 48.6 4.28419 8.31299
931 1 50.5532 4.0832 10.2778
933 1 52.65 4.2842 8.31299
1329 1 48.5484 4.01809 12.3201
1333 1 52.6701 4.23361 12.2285
932 1 48.5469 6.36474 10.4001
1330 1 50.6747 6.26438 12.2249
936 1 52.7155 6.3263 10.2126
930 1 50.625 6.31549 8.30348
1409 1 48.4875 8.32683 12.2862
1009 1 48.6 8.33447 8.28767
1011 1 50.5402 8.16804 10.2048
1013 1 52.65 8.33447 8.28767
1413 1 52.5303 8.24691 12.2913
935 1 54.6832 4.27238 10.3282
937 1 56.7 4.28419 8.31299
939 1 58.7439 4.14038 10.2283
1337 1 56.6451 4.1482 12.4568
940 1 56.8047 6.22993 10.1698
1334 1 54.549 6.43875 12.3858
934 1 54.675 6.31549 8.30348
938 1 58.725 6.31548 8.30348
1338 1 58.6736 6.2309 12.206
1019 1 58.6497 8.44772 10.3903
1417 1 56.6248 8.54095 12.2391
1015 1 54.7869 8.30976 10.2695
1017 1 56.7 8.33447 8.28768
941 1 60.75 4.2842 8.31299
943 1 62.7254 4.18967 10.3641
945 1 64.8 4.28419 8.31299
1341 1 60.7687 4.29193 12.4292
1345 1 64.5951 4.1269 12.5321
1342 1 62.7377 6.31608 12.3356
948 1 64.6962 6.23203 10.3549
942 1 62.775 6.31549 8.30348
946 1 66.825 6.31548 8.30349
944 1 60.707 6.38279 10.3639
1421 1 60.5783 8.28021 12.4682
1021 1 60.75 8.33446 8.28767
1023 1 62.6666 8.20833 10.2511
1025 1 64.8 8.33447 8.28767
1425 1 64.8024 8.22679 12.4643
947 1 66.7643 4.21163 10.5346
1027 1 66.8792 8.24758 10.3665
1346 1 66.773 6.20446 12.5098
949 1 68.85 4.2842 8.31298
951 1 70.867 4.14781 10.3011
953 1 72.9 4.28419 8.31299
1349 1 68.8582 4.19133 12.3442
1353 1 72.9899 3.95718 12.1809
956 1 73.0451 6.27056 10.2177
952 1 68.8094 6.38288 10.2945
1350 1 71.2678 6.17772 12.1254
950 1 70.875 6.31549 8.30349
1031 1 70.7656 8.32394 10.1862
1433 1 73.0465 8.26368 12.2611
1029 1 68.85 8.33447 8.28767
1033 1 72.9 8.33447 8.28767
1429 1 68.9738 8.17389 12.3049
955 1 74.8794 4.23098 10.2872
957 1 76.95 4.2842 8.31298
959 1 78.99 4.29714 10.1723
1357 1 76.9762 3.97007 12.2641
1354 1 75.0695 6.17754 12.3869
1358 1 78.9726 6.1547 12.5061
954 1 74.925 6.31548 8.30349
958 1 78.975 6.31549 8.30348
960 1 77.0066 6.08661 10.3819
1035 1 75.0433 8.36248 10.2174
1037 1 76.95 8.33447 8.28767
1039 1 78.8935 8.16864 10.4367
1437 1 76.9239 8.24964 12.3689
1281 1 80.9604 4.18168 12.3268
884 1 80.944 6.21024 10.2888
881 1 81 4.28419 8.31299
961 1 81 8.33447 8.28767
1366 1 6.05684 10.4149 12.3693
962 1 2.025 10.3483 8.26977
966 1 6.075 10.3483 8.26976
968 1 4.05179 10.3317 10.3051
1362 1 1.97112 10.1781 12.4449
1445 1 4.01393 12.4729 12.2538
1047 1 5.89165 12.4235 10.2735
1043 1 1.95278 12.262 10.2563
1045 1 4.05 12.3604 8.25213
1042 1 2.025 14.3717 8.23562
1046 1 6.075 14.3717 8.23562
1048 1 3.99687 14.36 10.2183
1442 1 1.96537 14.3693 12.2658
1446 1 6.21626 14.3905 12.2473
964 1 0.0433064 10.2929 10.4245
1441 1 0.0283013 12.2583 12.3844