ITEM: TIMESTEP
380000
ITEM: NUMBER OF ATOMS
41820
ITEM: BOX BOUNDS pp ss ss
0.0000000000000000e+00 8.1000000000000000e+01
-3.8243933596468143e+00 1.0416451062930012e+02
1.0402618938448012e-01 9.0969842537098430e+01
ITEM: ATOMS id type x y z
3 1 2.02499 0.414036 2.33969
5 1 4.05 0.484788 0.446534
7 1 6.075 0.41403 2.33969
403 1 2.025 0.344649 6.29225
405 1 4.05 0.376263 4.28721
407 1 6.075 0.344653 6.29225
408 1 4.05001 2.29606 6.31179
402 1 2.025 2.33523 4.31606
406 1 6.075 2.33524 4.31608
2 1 2.025 2.37788 0.373738
4 1 1.39891e-06 2.38125 2.34095
6 1 6.07501 2.37788 0.373734
8 1 4.04999 2.38126 2.34096
9 1 8.1 0.484796 0.446543
11 1 10.125 0.414035 2.33969
13 1 12.15 0.484794 0.446543
409 1 8.1 0.376258 4.28721
411 1 10.125 0.344651 6.29225
413 1 12.15 0.376264 4.28721
412 1 8.1 2.29606 6.3118
416 1 12.15 2.29606 6.31179
410 1 10.125 2.33523 4.31607
10 1 10.125 2.37788 0.37374
12 1 8.1 2.38125 2.34095
16 1 12.15 2.38125 2.34095
15 1 14.175 0.414031 2.33969
17 1 16.2 0.484793 0.446541
19 1 18.225 0.414033 2.33969
415 1 14.175 0.344653 6.29225
417 1 16.2 0.376262 4.28721
419 1 18.225 0.344654 6.29225
420 1 16.2 2.29606 6.31179
414 1 14.175 2.33523 4.31608
418 1 18.225 2.33523 4.31608
14 1 14.175 2.37788 0.373736
18 1 18.225 2.37788 0.37374
20 1 16.2 2.38126 2.34095
21 1 20.25 0.484798 0.446546
23 1 22.275 0.41403 2.33969
25 1 24.3 0.484785 0.446532
27 1 26.325 0.414032 2.33969
421 1 20.25 0.376259 4.28721
423 1 22.275 0.344652 6.29225
425 1 24.3 0.37626 4.28721
427 1 26.325 0.344651 6.29225
424 1 20.25 2.29606 6.3118
428 1 24.3 2.29606 6.31179
422 1 22.275 2.33524 4.31608
426 1 26.325 2.33524 4.31607
22 1 22.275 2.37788 0.373736
24 1 20.25 2.38125 2.34094
26 1 26.325 2.37788 0.373738
28 1 24.3 2.38127 2.34097
29 1 28.35 0.484789 0.446538
31 1 30.375 0.414032 2.33969
33 1 32.4 0.484788 0.446537
429 1 28.35 0.376259 4.28721
431 1 30.375 0.344655 6.29225
433 1 32.4 0.376265 4.28721
432 1 28.35 2.29606 6.3118
436 1 32.4 2.29606 6.31179
430 1 30.375 2.33523 4.31607
30 1 30.375 2.37788 0.373738
32 1 28.35 2.38126 2.34096
36 1 32.4 2.38126 2.34096
35 1 34.425 0.414028 2.33968
37 1 36.45 0.484797 0.446546
39 1 38.475 0.414028 2.33969
435 1 34.425 0.344651 6.29225
437 1 36.45 0.376257 4.28721
439 1 38.475 0.344652 6.29225
440 1 36.45 2.29606 6.3118
434 1 34.425 2.33524 4.31608
438 1 38.475 2.33523 4.31608
34 1 34.425 2.37788 0.373736
38 1 38.475 2.37788 0.373737
40 1 36.45 2.38125 2.34094
41 1 40.5 0.484786 0.446536
43 1 42.525 0.414029 2.33969
45 1 44.55 0.484788 0.446537
47 1 46.575 0.414029 2.33969
441 1 40.5 0.37626 4.28721
443 1 42.525 0.34465 6.29225
445 1 44.55 0.37626 4.28721
447 1 46.575 0.344651 6.29225
444 1 40.5 2.29606 6.31179
448 1 44.55 2.29607 6.31179
442 1 42.525 2.33524 4.31607
446 1 46.575 2.33524 4.31607
42 1 42.525 2.37789 0.373736
44 1 40.5 2.38126 2.34096
46 1 46.575 2.37788 0.373739
48 1 44.55 2.38126 2.34096
49 1 48.6 0.484786 0.446534
51 1 50.625 0.414032 2.33969
53 1 52.65 0.48479 0.446538
449 1 48.6 0.376258 4.28721
451 1 50.625 0.344652 6.29225
453 1 52.65 0.376261 4.28721
452 1 48.6 2.29607 6.31179
456 1 52.65 2.29606 6.31179
450 1 50.625 2.33524 4.31607
50 1 50.625 2.37788 0.373737
52 1 48.6 2.38127 2.34096
56 1 52.65 2.38126 2.34096
55 1 54.675 0.41403 2.33968
57 1 56.7 0.484793 0.446541
59 1 58.725 0.414028 2.33969
455 1 54.675 0.344654 6.29225
457 1 56.7 0.376258 4.28721
459 1 58.725 0.344649 6.29225
460 1 56.7 2.29606 6.31179
454 1 54.675 2.33524 4.31608
458 1 58.725 2.33524 4.31608
54 1 54.675 2.37788 0.373738
58 1 58.725 2.37789 0.373738
60 1 56.7 2.38126 2.34095
61 1 60.75 0.484778 0.446532
63 1 62.775 0.41403 2.33969
65 1 64.8 0.484791 0.446541
67 1 66.825 0.414032 2.33969
461 1 60.75 0.37626 4.28721
463 1 62.775 0.344653 6.29225
465 1 64.8 0.376259 4.28721
467 1 66.825 0.344649 6.29224
464 1 60.75 2.29606 6.31179
468 1 64.8 2.29606 6.31179
462 1 62.775 2.33524 4.31608
466 1 66.825 2.33523 4.31607
62 1 62.775 2.37788 0.373738
64 1 60.75 2.38127 2.34097
66 1 66.825 2.37789 0.373738
68 1 64.8 2.38126 2.34096
69 1 68.85 0.484793 0.446534
71 1 70.875 0.41403 2.33968
73 1 72.9 0.484803 0.446551
469 1 68.85 0.376262 4.28721
471 1 70.875 0.344657 6.29225
473 1 72.9 0.376262 4.28721
472 1 68.85 2.29607 6.31179
476 1 72.9 2.29606 6.31179
470 1 70.875 2.33524 4.31609
70 1 70.875 2.37787 0.373736
72 1 68.85 2.38126 2.34096
76 1 72.9 2.38123 2.34094
75 1 74.925 0.414035 2.33969
77 1 76.95 0.484782 0.446535
79 1 78.975 0.414027 2.33968
475 1 74.925 0.344649 6.29224
477 1 76.95 0.376261 4.28722
479 1 78.975 0.34465 6.29225
480 1 76.95 2.29606 6.31179
474 1 74.925 2.33523 4.31607
478 1 78.975 2.33524 4.31608
74 1 74.925 2.37788 0.37374
78 1 78.975 2.37788 0.373736
80 1 76.95 2.38128 2.34097
1 1 81 0.484793 0.446543
401 1 81 0.376262 4.28721
404 1 81 2.29606 6.31179
81 1 7.30533e-07 4.32538 0.333904
83 1 2.02501 4.35634 2.29282
85 1 4.05 4.32538 0.333904
87 1 6.075 4.35636 2.29283
481 1 1.08951e-06 4.34241 4.29995
483 1 2.025 4.31119 6.31077
485 1 4.05001 4.3424 4.29994
487 1 6.075 4.31118 6.31076
82 1 2.025 6.33041 0.300133
86 1 6.075 6.3304 0.300139
88 1 4.05001 6.35205 2.25149
482 1 2.025 6.35322 4.26658
484 1 1.49367e-06 6.33648 6.29185
486 1 6.075 6.35321 4.26657
488 1 4.05 6.33648 6.29185
161 1 8.45697e-08 8.33257 0.272181
163 1 2.02499 8.35002 2.22246
165 1 4.05 8.33257 0.27218
167 1 6.075 8.35002 2.22246
563 1 2.025 8.34813 6.26869
565 1 4.05 8.35547 4.23741
567 1 6.075 8.34814 6.2687
89 1 8.1 4.32538 0.333904
91 1 10.125 4.35635 2.29282
93 1 12.15 4.32538 0.333904
489 1 8.1 4.34241 4.29995
491 1 10.125 4.31119 6.31077
493 1 12.15 4.34241 4.29995
90 1 10.125 6.3304 0.300135
92 1 8.1 6.35204 2.25149
96 1 12.15 6.35204 2.25149
490 1 10.125 6.35322 4.26658
492 1 8.1 6.33648 6.29184
496 1 12.15 6.33648 6.29184
169 1 8.1 8.33257 0.272177
171 1 10.125 8.35002 2.22246
173 1 12.15 8.33256 0.27218
569 1 8.1 8.35547 4.23741
571 1 10.125 8.34814 6.2687
573 1 12.15 8.35547 4.23741
95 1 14.175 4.35636 2.29282
97 1 16.2 4.32538 0.333905
99 1 18.225 4.35635 2.29282
495 1 14.175 4.31118 6.31076
497 1 16.2 4.34241 4.29995
499 1 18.225 4.31118 6.31076
94 1 14.175 6.3304 0.300136
98 1 18.225 6.3304 0.300138
100 1 16.2 6.35204 2.25149
494 1 14.175 6.35321 4.26657
498 1 18.225 6.35322 4.26658
500 1 16.2 6.33648 6.29185
175 1 14.175 8.35002 2.22246
177 1 16.2 8.33257 0.272178
179 1 18.225 8.35002 2.22246
575 1 14.175 8.34814 6.2687
577 1 16.2 8.35547 4.23741
579 1 18.225 8.34814 6.2687
101 1 20.25 4.32538 0.333903
103 1 22.275 4.35635 2.29282
105 1 24.3 4.32538 0.333904
107 1 26.325 4.35634 2.29282
501 1 20.25 4.34241 4.29996
503 1 22.275 4.31118 6.31076
505 1 24.3 4.3424 4.29994
507 1 26.325 4.31118 6.31077
102 1 22.275 6.3304 0.300135
104 1 20.25 6.35205 2.25149
106 1 26.325 6.3304 0.300134
108 1 24.3 6.35205 2.25149
502 1 22.275 6.35322 4.26657
504 1 20.25 6.33648 6.29184
506 1 26.325 6.35322 4.26657
508 1 24.3 6.33648 6.29185
181 1 20.25 8.33256 0.27218
183 1 22.275 8.35002 2.22246
185 1 24.3 8.33256 0.272178
187 1 26.325 8.35002 2.22246
581 1 20.25 8.35547 4.2374
583 1 22.275 8.34814 6.2687
585 1 24.3 8.35547 4.23741
587 1 26.325 8.34814 6.2687
109 1 28.35 4.32538 0.333906
111 1 30.375 4.35635 2.29282
113 1 32.4 4.32538 0.333904
509 1 28.35 4.34241 4.29995
511 1 30.375 4.31118 6.31077
513 1 32.4 4.3424 4.29994
110 1 30.375 6.3304 0.300136
112 1 28.35 6.35205 2.25149
116 1 32.4 6.35204 2.25149
510 1 30.375 6.35322 4.26657
512 1 28.35 6.33648 6.29185
516 1 32.4 6.33649 6.29185
189 1 28.35 8.33256 0.272179
191 1 30.375 8.35002 2.22246
193 1 32.4 8.33257 0.272177
589 1 28.35 8.35547 4.23741
591 1 30.375 8.34814 6.2687
593 1 32.4 8.35547 4.23741
115 1 34.425 4.35635 2.29282
117 1 36.45 4.32538 0.333903
119 1 38.475 4.35635 2.29282
515 1 34.425 4.31118 6.31077
517 1 36.45 4.34242 4.29996
519 1 38.475 4.31118 6.31076
114 1 34.425 6.3304 0.300137
118 1 38.475 6.3304 0.300133
120 1 36.45 6.35204 2.25149
514 1 34.425 6.35322 4.26657
518 1 38.475 6.35322 4.26658
520 1 36.45 6.33648 6.29184
195 1 34.425 8.35002 2.22246
197 1 36.45 8.33257 0.272177
199 1 38.475 8.35002 2.22246
595 1 34.425 8.34814 6.2687
597 1 36.45 8.35547 4.23741
599 1 38.475 8.34814 6.2687
121 1 40.5 4.32538 0.333905
123 1 42.525 4.35635 2.29282
125 1 44.55 4.32538 0.333904
127 1 46.575 4.35634 2.29282
521 1 40.5 4.3424 4.29995
523 1 42.525 4.31118 6.31077
525 1 44.55 4.3424 4.29994
527 1 46.575 4.31118 6.31077
122 1 42.525 6.3304 0.300138
124 1 40.5 6.35204 2.25149
126 1 46.575 6.3304 0.300136
128 1 44.55 6.35205 2.25149
522 1 42.525 6.35322 4.26657
524 1 40.5 6.33649 6.29185
526 1 46.575 6.35322 4.26658
528 1 44.55 6.33649 6.29184
201 1 40.5 8.33256 0.272179
203 1 42.525 8.35001 2.22246
205 1 44.55 8.33256 0.272183
207 1 46.575 8.35002 2.22246
601 1 40.5 8.35547 4.23741
603 1 42.525 8.34814 6.2687
605 1 44.55 8.35547 4.23741
607 1 46.575 8.34814 6.2687
129 1 48.6 4.32538 0.333907
131 1 50.625 4.35634 2.29282
133 1 52.65 4.32538 0.333903
529 1 48.6 4.3424 4.29994
531 1 50.625 4.31118 6.31076
533 1 52.65 4.3424 4.29995
130 1 50.625 6.3304 0.300135
132 1 48.6 6.35204 2.25149
136 1 52.65 6.35205 2.25149
530 1 50.625 6.35322 4.26658
532 1 48.6 6.33648 6.29185
536 1 52.65 6.33648 6.29185
209 1 48.6 8.33256 0.272176
211 1 50.625 8.35002 2.22246
213 1 52.65 8.33256 0.272184
609 1 48.6 8.35547 4.23741
611 1 50.625 8.34814 6.2687
613 1 52.65 8.35547 4.23741
135 1 54.675 4.35635 2.29282
137 1 56.7 4.32537 0.333906
139 1 58.725 4.35634 2.29282
535 1 54.675 4.31119 6.31076
537 1 56.7 4.34241 4.29995
539 1 58.725 4.31118 6.31077
134 1 54.675 6.3304 0.300137
138 1 58.725 6.3304 0.300136
140 1 56.7 6.35204 2.2515
534 1 54.675 6.35322 4.26658
538 1 58.725 6.35322 4.26658
540 1 56.7 6.33648 6.29184
215 1 54.675 8.35001 2.22246
217 1 56.7 8.33256 0.272177
219 1 58.725 8.35002 2.22246
615 1 54.675 8.34814 6.2687
617 1 56.7 8.35547 4.23741
619 1 58.725 8.34814 6.26869
141 1 60.75 4.32538 0.333903
143 1 62.775 4.35635 2.29282
145 1 64.8 4.32538 0.333906
147 1 66.825 4.35634 2.29282
541 1 60.75 4.3424 4.29994
543 1 62.775 4.31118 6.31076
545 1 64.8 4.34241 4.29995
547 1 66.825 4.31119 6.31077
142 1 62.775 6.33041 0.300138
144 1 60.75 6.35205 2.25149
146 1 66.825 6.3304 0.300131
148 1 64.8 6.35205 2.25149
542 1 62.775 6.35322 4.26657
544 1 60.75 6.33649 6.29186
546 1 66.825 6.35322 4.26659
548 1 64.8 6.33648 6.29184
221 1 60.75 8.33257 0.272179
223 1 62.775 8.35002 2.22246
225 1 64.8 8.33256 0.272178
227 1 66.825 8.35003 2.22246
621 1 60.75 8.35547 4.23741
623 1 62.775 8.34814 6.2687
625 1 64.8 8.35547 4.23741
627 1 66.825 8.34814 6.26869
149 1 68.85 4.32538 0.333904
151 1 70.875 4.35635 2.29283
153 1 72.9 4.32538 0.3339
549 1 68.85 4.3424 4.29995
551 1 70.875 4.31117 6.31075
553 1 72.9 4.34242 4.29997
150 1 70.875 6.3304 0.300137
152 1 68.85 6.35204 2.25149
156 1 72.9 6.35205 2.25149
550 1 70.875 6.35321 4.26657
552 1 68.85 6.33648 6.29185
556 1 72.9 6.33648 6.29184
229 1 68.85 8.33256 0.272178
231 1 70.875 8.35002 2.22246
233 1 72.9 8.33256 0.272181
629 1 68.85 8.35547 4.23741
631 1 70.875 8.34815 6.2687
633 1 72.9 8.35547 4.23741
155 1 74.925 4.35635 2.29281
157 1 76.95 4.32538 0.333909
159 1 78.975 4.35635 2.29282
555 1 74.925 4.31119 6.31077
557 1 76.95 4.3424 4.29994
559 1 78.975 4.31118 6.31077
154 1 74.925 6.3304 0.300137
158 1 78.975 6.3304 0.300138
160 1 76.95 6.35204 2.25149
554 1 74.925 6.35322 4.26658
558 1 78.975 6.35322 4.26657
560 1 76.95 6.33649 6.29185
235 1 74.925 8.35002 2.22245
237 1 76.95 8.33256 0.272179
239 1 78.975 8.35002 2.22246
635 1 74.925 8.34813 6.26869
637 1 76.95 8.35547 4.23741
639 1 78.975 8.34815 6.2687
84 1 81 6.35205 2.25149
561 1 81 8.35547 4.2374
162 1 2.025 10.3354 0.250613
164 1 6.69847e-06 10.351 2.19892
166 1 6.075 10.3354 0.250615
168 1 4.05 10.351 2.19891
562 1 2.025 10.3584 4.2131
566 1 6.075 10.3584 4.2131
568 1 4.05 10.3563 6.24659
243 1 2.025 12.3557 2.17917
245 1 4.05 12.3419 0.232596
247 1 6.075 12.3557 2.17918
643 1 2.025 12.3646 6.22673
645 1 4.05 12.3637 4.1924
647 1 6.075 12.3646 6.22673
242 1 2.025 14.3506 0.216976
244 1 9.18952e-06 14.3628 2.16242
246 1 6.075 14.3506 0.216977
248 1 4.05 14.3628 2.16242
642 1 2.02501 14.3707 4.17474
644 1 2.69886e-07 14.3732 6.20914
646 1 6.075 14.3707 4.17474
648 1 4.05 14.3732 6.20914
170 1 10.125 10.3354 0.250615
172 1 8.1 10.351 2.19892
176 1 12.15 10.351 2.19892
570 1 10.125 10.3584 4.2131
572 1 8.1 10.3563 6.24659
576 1 12.15 10.3563 6.24659
249 1 8.1 12.3419 0.232594
251 1 10.125 12.3557 2.17917
253 1 12.15 12.3419 0.232592
649 1 8.1 12.3637 4.1924
651 1 10.125 12.3646 6.22673
653 1 12.15 12.3637 4.1924
250 1 10.125 14.3506 0.216976
252 1 8.1 14.3628 2.16242
256 1 12.15 14.3628 2.16242
650 1 10.125 14.3707 4.17474
652 1 8.1 14.3732 6.20914
656 1 12.15 14.3732 6.20915
174 1 14.175 10.3354 0.250615
178 1 18.225 10.3354 0.250614
180 1 16.2 10.351 2.19892
574 1 14.175 10.3584 4.2131
578 1 18.225 10.3584 4.2131
580 1 16.2 10.3563 6.24659
255 1 14.175 12.3557 2.17918
257 1 16.2 12.3419 0.232593
259 1 18.225 12.3557 2.17918
655 1 14.175 12.3646 6.22673
657 1 16.2 12.3637 4.1924
659 1 18.225 12.3646 6.22673
254 1 14.175 14.3506 0.216978
258 1 18.225 14.3506 0.216976
260 1 16.2 14.3628 2.16242
654 1 14.175 14.3707 4.17474
658 1 18.225 14.3707 4.17474
660 1 16.2 14.3732 6.20915
182 1 22.275 10.3354 0.250613
184 1 20.25 10.351 2.19892
186 1 26.325 10.3354 0.250613
188 1 24.3 10.351 2.19892
582 1 22.275 10.3584 4.2131
584 1 20.25 10.3563 6.24659
586 1 26.325 10.3584 4.2131
588 1 24.3 10.3563 6.24659
261 1 20.25 12.3419 0.232592
263 1 22.275 12.3557 2.17918
265 1 24.3 12.3419 0.232593
267 1 26.325 12.3557 2.17918
661 1 20.25 12.3637 4.19241
663 1 22.275 12.3646 6.22673
665 1 24.3 12.3637 4.1924
667 1 26.325 12.3646 6.22673
262 1 22.275 14.3506 0.216977
264 1 20.25 14.3628 2.16242
266 1 26.325 14.3506 0.216975
268 1 24.3 14.3628 2.16242
662 1 22.275 14.3707 4.17474
664 1 20.25 14.3732 6.20914
666 1 26.325 14.3707 4.17474
668 1 24.3 14.3732 6.20914
190 1 30.375 10.3354 0.250614
192 1 28.35 10.351 2.19892
196 1 32.4 10.351 2.19892
590 1 30.375 10.3584 4.2131
592 1 28.35 10.3563 6.24659
596 1 32.4 10.3563 6.24659
269 1 28.35 12.3419 0.232595
271 1 30.375 12.3557 2.17918
273 1 32.4 12.3419 0.232591
669 1 28.35 12.3637 4.1924
671 1 30.375 12.3646 6.22673
673 1 32.4 12.3636 4.1924
270 1 30.375 14.3506 0.216975
272 1 28.35 14.3628 2.16242
276 1 32.4 14.3628 2.16242
670 1 30.375 14.3707 4.17473
672 1 28.35 14.3732 6.20914
676 1 32.4 14.3732 6.20914
194 1 34.425 10.3354 0.250615
198 1 38.475 10.3354 0.250615
200 1 36.45 10.351 2.19892
594 1 34.425 10.3584 4.2131
598 1 38.475 10.3584 4.2131
600 1 36.45 10.3563 6.24659
275 1 34.425 12.3557 2.17918
277 1 36.45 12.3419 0.232594
279 1 38.475 12.3557 2.17917
675 1 34.425 12.3646 6.22673
677 1 36.45 12.3637 4.1924
679 1 38.475 12.3646 6.22673
274 1 34.425 14.3506 0.216977
278 1 38.475 14.3506 0.216975
280 1 36.45 14.3628 2.16242
674 1 34.425 14.3707 4.17474
678 1 38.475 14.3707 4.17474
680 1 36.45 14.3732 6.20914
202 1 42.525 10.3354 0.250613
204 1 40.5 10.351 2.19892
206 1 46.575 10.3354 0.250617
208 1 44.55 10.351 2.19891
602 1 42.525 10.3584 4.2131
604 1 40.5 10.3563 6.24659
606 1 46.575 10.3584 4.2131
608 1 44.55 10.3563 6.24659
281 1 40.5 12.3419 0.232592
283 1 42.525 12.3557 2.17918
285 1 44.55 12.3419 0.232593
287 1 46.575 12.3557 2.17917
681 1 40.5 12.3637 4.1924
683 1 42.525 12.3646 6.22673
685 1 44.55 12.3637 4.19241
687 1 46.575 12.3646 6.22673
282 1 42.525 14.3506 0.216977
284 1 40.5 14.3628 2.16242
286 1 46.575 14.3506 0.216975
288 1 44.55 14.3628 2.16242
682 1 42.525 14.3707 4.17473
684 1 40.5 14.3732 6.20914
686 1 46.575 14.3707 4.17473
688 1 44.55 14.3732 6.20915
210 1 50.625 10.3354 0.250614
212 1 48.6 10.351 2.19892
216 1 52.65 10.351 2.19891
610 1 50.625 10.3584 4.2131
612 1 48.6 10.3563 6.24659
616 1 52.65 10.3563 6.24659
289 1 48.6 12.3419 0.232594
291 1 50.625 12.3557 2.17917
293 1 52.65 12.3419 0.232593
689 1 48.6 12.3636 4.1924
691 1 50.625 12.3646 6.22673
693 1 52.65 12.3637 4.1924
290 1 50.625 14.3506 0.216977
292 1 48.6 14.3628 2.16242
296 1 52.65 14.3628 2.16242
690 1 50.625 14.3707 4.17473
692 1 48.6 14.3732 6.20914
696 1 52.65 14.3732 6.20914
214 1 54.675 10.3354 0.250612
218 1 58.725 10.3354 0.250619
220 1 56.7 10.351 2.19892
614 1 54.675 10.3584 4.2131
618 1 58.725 10.3584 4.2131
620 1 56.7 10.3563 6.24659
295 1 54.675 12.3557 2.17918
297 1 56.7 12.3419 0.232592
299 1 58.725 12.3557 2.17918
695 1 54.675 12.3646 6.22673
697 1 56.7 12.3636 4.1924
699 1 58.725 12.3646 6.22673
294 1 54.675 14.3506 0.216975
298 1 58.725 14.3506 0.216974
300 1 56.7 14.3628 2.16242
694 1 54.675 14.3707 4.17474
698 1 58.725 14.3707 4.17474
700 1 56.7 14.3732 6.20914
222 1 62.775 10.3354 0.250615
224 1 60.75 10.351 2.19892
226 1 66.825 10.3354 0.250615
228 1 64.8 10.351 2.19892
622 1 62.775 10.3584 4.2131
624 1 60.75 10.3563 6.24658
626 1 66.825 10.3584 4.2131
628 1 64.8 10.3563 6.24659
301 1 60.75 12.3419 0.232592
303 1 62.775 12.3557 2.17918
305 1 64.8 12.3419 0.232594
307 1 66.825 12.3557 2.17918
701 1 60.75 12.3636 4.19241
703 1 62.775 12.3646 6.22673
705 1 64.8 12.3637 4.1924
707 1 66.825 12.3646 6.22673
302 1 62.775 14.3506 0.216977
304 1 60.75 14.3628 2.16242
306 1 66.825 14.3506 0.216974
308 1 64.8 14.3628 2.16242
702 1 62.775 14.3707 4.17473
704 1 60.75 14.3732 6.20914
706 1 66.825 14.3707 4.17474
708 1 64.8 14.3732 6.20914
230 1 70.875 10.3354 0.250614
232 1 68.85 10.351 2.19891
236 1 72.9 10.351 2.19892
630 1 70.875 10.3584 4.2131
632 1 68.85 10.3563 6.24659
636 1 72.9 10.3563 6.24659
309 1 68.85 12.3419 0.232596
311 1 70.875 12.3557 2.17917
313 1 72.9 12.3419 0.232588
709 1 68.85 12.3637 4.1924
711 1 70.875 12.3646 6.22673
713 1 72.9 12.3636 4.1924
310 1 70.875 14.3506 0.216976
312 1 68.85 14.3628 2.16242
316 1 72.9 14.3628 2.16242
710 1 70.875 14.3707 4.17474
712 1 68.85 14.3732 6.20915
716 1 72.9 14.3732 6.20915
234 1 74.925 10.3354 0.250616
238 1 78.975 10.3354 0.250614
240 1 76.95 10.351 2.19891
634 1 74.925 10.3584 4.21309
638 1 78.975 10.3584 4.2131
640 1 76.95 10.3563 6.24659
315 1 74.925 12.3557 2.17918
317 1 76.95 12.3419 0.232591
319 1 78.975 12.3557 2.17918
715 1 74.925 12.3646 6.22673
717 1 76.95 12.3637 4.1924
719 1 78.975 12.3646 6.22673
314 1 74.925 14.3506 0.216976
318 1 78.975 14.3506 0.216975
320 1 76.95 14.3628 2.16242
714 1 74.925 14.3707 4.17473
718 1 78.975 14.3707 4.17473
720 1 76.95 14.3732 6.20914
564 1 81 10.3563 6.24659
241 1 81 12.3419 0.232591
641 1 81 12.3637 4.1924
325 1 4.05 16.3607 0.203361
321 1 5.75906e-06 16.3607 0.203356
327 1 6.075 16.3716 2.14791
323 1 2.025 16.3716 2.14792
725 1 4.05 16.3792 4.15942
727 1 6.075 16.3827 6.19362
723 1 2.02501 16.3827 6.19363
333 1 12.15 16.3607 0.203362
329 1 8.1 16.3607 0.20336
331 1 10.125 16.3716 2.14792
729 1 8.1 16.3792 4.15942
733 1 12.15 16.3792 4.15942
731 1 10.125 16.3827 6.19362
337 1 16.2 16.3607 0.203362
339 1 18.225 16.3716 2.14792
335 1 14.175 16.3716 2.14792
737 1 16.2 16.3792 4.15942
735 1 14.175 16.3827 6.19362
739 1 18.225 16.3827 6.19362
341 1 20.25 16.3607 0.20336
345 1 24.3 16.3607 0.203358
343 1 22.275 16.3716 2.14792
347 1 26.325 16.3716 2.14792
741 1 20.25 16.3792 4.15942
745 1 24.3 16.3792 4.15942
747 1 26.325 16.3827 6.19362
743 1 22.275 16.3827 6.19362
353 1 32.4 16.3607 0.203361
349 1 28.35 16.3607 0.20336
351 1 30.375 16.3716 2.14792
749 1 28.35 16.3792 4.15942
753 1 32.4 16.3792 4.15942
751 1 30.375 16.3827 6.19362
357 1 36.45 16.3607 0.203361
355 1 34.425 16.3716 2.14792
359 1 38.475 16.3716 2.14792
757 1 36.45 16.3792 4.15942
759 1 38.475 16.3827 6.19362
755 1 34.425 16.3827 6.19362
365 1 44.55 16.3607 0.20336
361 1 40.5 16.3607 0.203356
367 1 46.575 16.3716 2.14792
363 1 42.525 16.3716 2.14792
765 1 44.55 16.3792 4.15942
761 1 40.5 16.3792 4.15942
767 1 46.575 16.3827 6.19362
763 1 42.525 16.3827 6.19362
369 1 48.6 16.3607 0.203362
373 1 52.65 16.3607 0.20336
371 1 50.625 16.3716 2.14792
773 1 52.65 16.3792 4.15942
769 1 48.6 16.3792 4.15943
771 1 50.625 16.3827 6.19362
377 1 56.7 16.3607 0.203359
375 1 54.675 16.3716 2.14792
379 1 58.725 16.3716 2.14792
777 1 56.7 16.3792 4.15942
779 1 58.725 16.3827 6.19362
775 1 54.675 16.3827 6.19362
381 1 60.75 16.3607 0.203359
385 1 64.8 16.3607 0.203361
383 1 62.775 16.3716 2.14792
387 1 66.825 16.3716 2.14791
781 1 60.75 16.3792 4.15942
785 1 64.8 16.3792 4.15943
783 1 62.775 16.3827 6.19363
787 1 66.825 16.3827 6.19362
389 1 68.85 16.3607 0.203358
393 1 72.9 16.3607 0.203366
391 1 70.875 16.3716 2.14792
793 1 72.9 16.3792 4.15942
789 1 68.85 16.3792 4.15942
791 1 70.875 16.3827 6.19362
397 1 76.95 16.3607 0.203358
399 1 78.975 16.3716 2.14792
395 1 74.925 16.3716 2.14791
797 1 76.95 16.3792 4.15942
795 1 74.925 16.3827 6.19363
799 1 78.975 16.3827 6.19362
721 1 81 16.3792 4.15942
801 1 5.10896e-07 0.318876 8.29441
803 1 1.9645 0.161818 10.3101
805 1 4.05 0.318876 8.29441
807 1 6.10357 0.511106 10.38
1205 1 4.07229 0.0776942 12.466
1206 1 5.88865 2.15025 12.4834
1202 1 1.95311 2.17732 12.4549
808 1 3.95317 2.17749 10.3856
802 1 2.025 2.26919 8.30973
806 1 6.07501 2.26919 8.30972
809 1 8.1 0.318878 8.29441
811 1 10.1658 0.241845 10.2391
813 1 12.15 0.318879 8.29441
1209 1 8.16014 0.313994 12.1344
1213 1 12.0439 -0.0566824 12.3349
1210 1 10.0393 2.04913 12.3409
816 1 12.2692 2.11565 10.4612
812 1 8.09612 2.34707 10.2919
810 1 10.125 2.26919 8.30973
815 1 14.1908 0.131406 10.1184
817 1 16.2 0.318877 8.29441
819 1 18.2827 -0.007606 10.2306
1217 1 16.2297 0.100172 12.2032
1214 1 14.2799 2.07792 12.3491
1218 1 18.0339 2.21574 12.2185
820 1 16.111 2.26762 10.3386
814 1 14.175 2.26919 8.30973
818 1 18.225 2.26919 8.30972
824 1 20.0529 2.22399 10.3214
1221 1 20.1723 0.222588 12.3642
821 1 20.25 0.318878 8.29441
823 1 22.1717 0.378362 10.2998
825 1 24.3 0.318875 8.2944
827 1 26.2741 0.262616 10.3112
1225 1 24.2382 -0.179677 12.4157
1226 1 26.2914 1.97663 12.4102
1222 1 22.3029 2.33929 12.3628
828 1 24.2283 2.16653 10.3419
822 1 22.275 2.26919 8.30972
826 1 26.325 2.26919 8.30972
829 1 28.35 0.318877 8.29441
831 1 30.3166 0.405109 10.4644
833 1 32.4 0.318875 8.29441
1229 1 28.3953 0.0902376 12.3832
1233 1 32.4101 -0.0338835 12.3773
836 1 32.4306 2.21294 10.4353
1230 1 30.3522 2.08524 12.4056
832 1 28.3713 2.20812 10.5522
830 1 30.375 2.2692 8.30972
835 1 34.6546 0.331889 10.2351
837 1 36.45 0.318877 8.29441
839 1 38.5519 0.184219 10.1994
1237 1 36.4448 0.410723 12.2179
1234 1 34.4246 2.27321 12.2538
1238 1 38.5861 2.24702 12.2453
840 1 36.6077 2.33478 10.408
834 1 34.425 2.2692 8.30973
838 1 38.475 2.26919 8.30972
1241 1 40.7497 0.248211 12.1132
844 1 40.5028 2.345 10.1643
841 1 40.5 0.318875 8.29441
843 1 42.6542 0.396232 10.2337
845 1 44.55 0.318875 8.29441
847 1 46.5129 0.39339 10.3785
1245 1 44.4605 0.324662 12.1437
1246 1 46.6301 2.29788 12.3768
1242 1 42.4922 2.30542 12.4253
848 1 44.4991 2.3444 10.2486
842 1 42.525 2.2692 8.30973
846 1 46.575 2.2692 8.30972
849 1 48.6 0.318874 8.29441
851 1 50.6281 0.302082 10.0935
853 1 52.65 0.318877 8.29441
1249 1 48.5814 0.290671 12.1319
1253 1 52.6189 0.184035 12.3313
852 1 48.5511 2.34072 10.3145
1250 1 50.7694 2.1593 12.2044
856 1 52.6491 2.13019 10.3441
850 1 50.625 2.26919 8.30973
855 1 54.7356 0.363275 10.2471
857 1 56.7 0.318877 8.29441
859 1 58.8086 0.418173 10.1549
1257 1 56.9508 0.139249 12.038
1254 1 54.7185 1.98302 12.4114
1258 1 58.7742 2.11701 12.3443
860 1 56.7471 2.42181 10.2498
854 1 54.675 2.26919 8.30972
858 1 58.725 2.2692 8.30972
861 1 60.75 0.318875 8.29441
863 1 62.8451 0.118533 10.1552
865 1 64.8 0.318877 8.29441
1261 1 60.703 0.0268936 12.2848
1265 1 64.8163 0.207375 12.2013
1262 1 62.9217 1.96481 12.3814
868 1 64.7554 2.25692 10.2543
864 1 60.8839 2.15528 10.2918
862 1 62.775 2.26919 8.30972
866 1 66.825 2.2692 8.30973
1266 1 66.8397 2.08433 12.4629
867 1 66.8546 0.206365 10.3616
869 1 68.85 0.318878 8.29441
871 1 70.8845 0.425098 10.3766
873 1 72.9 0.318876 8.29441
1269 1 68.9088 0.22479 12.552
1273 1 72.9974 0.398656 12.395
876 1 72.8141 2.37904 10.3135
1270 1 70.7098 2.20575 12.419
872 1 68.7981 2.37997 10.3519
870 1 70.875 2.26919 8.30972
875 1 74.8744 0.482988 10.4114
877 1 76.95 0.318875 8.29441
879 1 79.1329 0.288051 10.2079
1277 1 76.9256 -0.0189041 12.584
1278 1 79.0099 1.84821 12.3365
1274 1 74.8106 2.4151 12.4436
880 1 76.9652 2.21954 10.3037
874 1 74.925 2.2692 8.30973
878 1 78.975 2.2692 8.30973
1201 1 80.9274 0.0726729 12.4688
804 1 80.8598 2.47749 10.424
883 1 1.9905 4.19344 10.4257
885 1 4.05 4.2842 8.31299
887 1 6.04015 4.29848 10.3813
1285 1 4.03602 4.205 12.4548
888 1 3.97752 6.29972 10.3519
1282 1 2.05229 6.11571 12.4618
882 1 2.025 6.31548 8.30348
886 1 6.075 6.31549 8.30349
1286 1 6.05881 6.28115 12.2158
963 1 2.0908 8.12821 10.3683
967 1 6.14427 8.30815 10.2417
1365 1 4.06629 8.26297 12.1364
965 1 4.05 8.33447 8.28767
1361 1 0.0955919 8.19014 12.2397
889 1 8.1 4.28419 8.31299
891 1 10.1174 4.29 10.3867
893 1 12.15 4.28419 8.31299
1289 1 7.95171 4.04562 12.5074
1293 1 12.0602 4.07592 12.512
892 1 8.19621 6.38201 10.3041
1290 1 10.1096 6.16259 12.4587
890 1 10.125 6.31549 8.30348
896 1 12.1891 6.31231 10.2931
1369 1 8.19892 8.26136 12.3649
1373 1 12.1258 8.4457 12.2998
969 1 8.1 8.33447 8.28767
971 1 10.2372 8.33391 10.3139
973 1 12.15 8.33447 8.28767
895 1 13.9057 4.26947 10.3979
897 1 16.2 4.2842 8.31299
899 1 18.1496 4.28261 10.2873
1297 1 16.113 4.25119 12.422
900 1 16.1133 6.18066 10.341
894 1 14.175 6.31549 8.30349
898 1 18.225 6.31549 8.30349
1294 1 14.0686 6.21301 12.3321
1298 1 18.0361 6.25134 12.2258
975 1 14.14 8.30056 10.4597
979 1 18.0784 8.36455 10.1908
977 1 16.2 8.33447 8.28767
1377 1 16.1021 8.1653 12.453
1381 1 20.1333 8.21864 12.2111
1301 1 20.1434 4.23877 12.3422
904 1 20.237 6.26772 10.3563
901 1 20.25 4.2842 8.31299
903 1 22.3262 4.28457 10.4279
905 1 24.3 4.2842 8.31299
907 1 26.2442 4.28351 10.3749
1305 1 24.4181 4.45821 12.6172
1306 1 26.4075 6.44617 12.4568
908 1 24.2962 6.40647 10.3487
1302 1 22.2321 6.09405 12.3537
902 1 22.275 6.31549 8.30348
906 1 26.325 6.31549 8.30348
983 1 22.1762 8.42842 10.3512
987 1 26.4271 8.30011 10.2907
1385 1 24.3362 8.20548 12.2142
981 1 20.25 8.33447 8.28767
985 1 24.3 8.33447 8.28767
909 1 28.35 4.28419 8.31298
911 1 30.5253 4.32392 10.3993
913 1 32.4 4.2842 8.31299
1309 1 28.6096 4.22231 12.2474
1313 1 32.3949 4.2379 12.3495
1310 1 30.5397 6.37702 12.3528
916 1 32.3353 6.41144 10.401
910 1 30.375 6.31549 8.30348
912 1 28.2784 6.23756 10.519
991 1 30.2886 8.21219 10.2686
1389 1 28.4487 8.38869 12.3054
1393 1 32.2769 8.46916 12.2528
989 1 28.35 8.33447 8.28767
993 1 32.4 8.33447 8.28767
915 1 34.2959 4.25205 10.2715
917 1 36.45 4.28419 8.31299
919 1 38.3699 4.318 10.2326
1317 1 36.4739 4.43756 12.4909
1318 1 38.4489 6.11158 12.2762
920 1 36.37 6.27049 10.3445
914 1 34.425 6.31548 8.30348
918 1 38.475 6.31549 8.30349
1314 1 34.3475 6.33377 12.3963
999 1 38.497 8.2606 10.1319
995 1 34.5596 8.3577 10.2008
997 1 36.45 8.33447 8.28768
1397 1 36.6306 8.25635 12.1287
1401 1 40.4529 8.1596 12.3868
921 1 40.5 4.28419 8.31299
923 1 42.5115 4.37182 10.3403
925 1 44.55 4.28419 8.31299
927 1 46.4617 4.31635 10.3647
1321 1 40.6206 4.1232 12.3676
1325 1 44.5958 4.14536 12.4597
928 1 44.4647 6.37998 10.4418
1326 1 46.5936 6.10406 12.3256
1322 1 42.4142 6.19857 12.4229
922 1 42.525 6.31549 8.30348
924 1 40.2642 6.24585 10.3064
926 1 46.575 6.31549 8.30349
1003 1 42.4741 8.32975 10.2968
1405 1 44.6013 8.32632 12.4142
1001 1 40.5 8.33447 8.28767
1005 1 44.55 8.33447 8.28767
1007 1 46.5725 8.3451 10.3516
929 1 48.6 4.28419 8.31299
931 1 50.7243 4.16422 10.2919
933 1 52.65 4.2842 8.31299
1329 1 48.8546 4.12215 12.4287
1333 1 52.6655 4.14361 12.3971
932 1 48.6428 6.0474 10.4018
1330 1 50.7236 6.05105 12.3981
936 1 52.7383 6.24428 10.408
930 1 50.625 6.31549 8.30348
1409 1 48.4056 8.25632 12.387
1009 1 48.6 8.33447 8.28767
1011 1 50.585 8.18251 10.3577
1013 1 52.65 8.33447 8.28767
1413 1 52.6969 8.24316 12.3054
935 1 54.6872 4.12154 10.4937
937 1 56.7 4.28419 8.31299
939 1 58.8189 4.18031 10.3176
1337 1 56.7135 4.18258 12.344
940 1 56.7839 6.25051 10.3803
1334 1 54.6752 6.0867 12.2652
934 1 54.675 6.31549 8.30348
938 1 58.725 6.31548 8.30348
1338 1 58.6698 6.30257 12.3942
1019 1 58.7554 8.23277 10.3329
1417 1 56.5921 8.17848 12.3384
1015 1 54.7819 8.3211 10.4128
1017 1 56.7 8.33447 8.28768
941 1 60.75 4.2842 8.31299
943 1 62.9022 4.29598 10.2916
945 1 64.8 4.28419 8.31299
1341 1 60.9238 4.186 12.189
1345 1 64.9849 4.16337 12.3717
1342 1 62.9066 6.07185 12.2597
948 1 64.9459 6.21807 10.2766
942 1 62.775 6.31549 8.30348
946 1 66.825 6.31548 8.30349
944 1 60.8404 6.16761 10.3488
1421 1 60.7508 8.08276 12.4771
1021 1 60.75 8.33446 8.28767
1023 1 62.9168 8.28656 10.3493
1025 1 64.8 8.33447 8.28767
1425 1 64.8821 8.10921 12.4023
1346 1 66.8439 6.28769 12.455
947 1 66.8945 4.3808 10.3124
1027 1 66.8474 8.62225 10.3707
949 1 68.85 4.2842 8.31298
951 1 70.8352 4.22242 10.2818
953 1 72.9 4.28419 8.31299
1349 1 68.9096 4.1496 12.4392
1353 1 72.8305 4.17291 12.5691
956 1 73.0065 6.21896 10.3505
952 1 68.7989 6.44043 10.366
1350 1 71.0148 6.13043 12.3893
950 1 70.875 6.31549 8.30349
1031 1 70.9067 8.34574 10.3411
1433 1 72.9471 8.25394 12.4885
1029 1 68.85 8.33447 8.28767
1033 1 72.9 8.33447 8.28767
1429 1 68.8867 8.15534 12.5134
955 1 74.9604 4.21605 10.3948
957 1 76.95 4.2842 8.31298
959 1 78.9349 4.23243 10.2264
1357 1 77.0752 4.2254 12.3762
1354 1 74.9097 6.25095 12.4775
1358 1 78.9142 6.24292 12.3732
954 1 74.925 6.31548 8.30349
958 1 78.975 6.31549 8.30348
960 1 76.9843 6.34997 10.4384
1035 1 74.8501 8.27554 10.2378
1037 1 76.95 8.33447 8.28767
1039 1 78.9887 8.34055 10.3313
1437 1 76.9872 8.38188 12.3347
1281 1 80.849 4.21156 12.3833
884 1 80.889 6.08076 10.4728
881 1 81 4.28419 8.31299
961 1 81 8.33447 8.28767
1366 1 6.04629 10.3055 12.3477
962 1 2.025 10.3483 8.26977
966 1 6.075 10.3483 8.26976
968 1 4.0309 10.3291 10.2589
1362 1 2.09502 10.2096 12.163
1445 1 4.14589 12.3333 12.5592
1047 1 6.03102 12.2946 10.5317
1043 1 2.05925 12.4995 10.3221
1045 1 4.05 12.3604 8.25213
1042 1 2.025 14.3717 8.23562
1046 1 6.075 14.3717 8.23562
1048 1 4.10401 14.544 10.2297
1442 1 2.14227 14.326 12.2794
1446 1 6.11559 14.3098 12.2238
1441 1 0.0988294 12.369 12.2594
964 1 0.075466 10.3206 10.288